6518
Atoms. Timestep: 0
2 8.06024 9.57927 1.02019
1 9.00007 9.70439 0.888694
1 7.97615 8.66721 1.29825
2 25.5004 35.0502 23.07
1 26.3081 34.8471 22.5983
1 25.7262 35.7996 23.6211
2 32.22 0.110054 0.569812
1 32.2586 0.499428 39.7401
1 31.7411 0.749709 1.09675
2 22.0998 35.1103 3.63947
1 21.7936 35.5946 2.8727
1 21.7399 35.5899 4.38564
2 10.48 9.12997 21.6399
1 10.4381 8.2853 21.1916
1 10.9013 9.71515 21.0103
2 8.30993 36.7707 37.91
1 8.03968 36.6666 36.9977
1 8.25142 37.7123 38.0717
2 29.8201 27.1105 19.8204
1 30.7671 27.2374 19.8779
1 29.7121 26.3849 19.2055
2 15.5199 21.9601 7.13988
1 15.901 21.4596 7.86138
1 15.98 22.7992 7.16049
2 35.3099 17.2304 30.38
1 35.0687 18.1563 30.4089
1 36.183 17.1975 30.771
2 6.87006 24.6206 29.77
1 6.42681 23.8536 30.1326
1 6.42226 25.3671 30.168
2 20.1703 3.83042 1.69952
1 19.6834 3.27752 2.31057
1 19.5311 4.06575 1.02706
2 21.7198 38.5599 39.5005
1 21.1126 39.2986 39.4571
1 22.1501 38.5525 38.6455
2 7.20032 18.5398 35.22
1 6.5876 18.9617 35.8224
1 7.79736 18.0522 35.7875
2 9.04019 22.3102 3.35971
1 9.4268 22.7983 2.6327
1 9.79026 21.9487 3.83187
2 36.8296 23.0099 38.5798
1 37.6233 22.5979 38.9214
1 36.3128 22.2833 38.2318
2 17.9298 36.8298 37.1603
1 18.784 36.7396 36.738
1 17.9299 36.163 37.847
2 19.3601 29.95 22.44
1 18.4685 29.8399 22.7703
1 19.9203 29.75 23.1899
2 9.00008 24.2804 17.9496
1 9.1692 24.4557 17.0239
1 8.94948 25.1472 18.3526
2 29.6001 0.490303 26.2497
1 30.1369 1.09827 25.7414
1 30.2319 40.0108 26.7428
2 23.5105 23.6001 22.4801
1 23.9767 23.3078 21.6969
1 24.1849 24.0099 23.0219
2 1.3995 23.7801 16.0599
1 2.14637 23.3372 16.4626
1 1.79163 24.441 15.4892
2 13.7302 35.9999 18.47
1 13.4288 35.2918 19.0391
1 12.9486 36.5292 18.311
2 6.60999 9.93 14.1598
1 6.77138 9.92994 15.1033
1 5.65878 10.0001 14.0791
2 3.23024 12.3201 38.7702
1 3.81069 11.6207 39.0705
1 2.5455 11.8683 38.2769
2 37.7899 13.31 18.0801
1 37.1715 12.6912 18.4687
1 37.8203 14.0395 18.6991
2 26.7597 4.28023 11.9192
1 26.5416 5.20992 11.9852
1 26.543 4.04636 11.0167
2 11.5902 20.7301 7.34964
1 10.6786 21.0197 7.31165
1 11.6786 20.3286 8.21407
2 21.3995 6.41999 37.9097
1 21.9355 6.43013 38.7027
1 22.0324 6.44005 37.1919
2 14.5599 29.26 30.6197
1 15.0728 29.1795 31.4238
1 15.1692 29.0204 29.9214
2 5.96987 34.5001 37.2506
1 5.05023 34.6996 37.4258
1 6.38185 34.4892 38.1145
2 26.9202 23.3502 17.37
1 27.6014 23.7914 16.8625
1 26.4046 22.8757 16.7179
2 13.5904 5.96038 8.6801
1 13.9269 6.74627 8.24958
1 14.0675 5.91772 9.50879
2 33.2202 35.2799 6.75
1 32.8594 34.489 7.15054
1 32.4571 35.832 6.57939
2 14.3092 0.709803 4.71988
1 14.4242 1.13146 5.57147
1 15.1879 0.691666 4.34049
2 19.4397 31.8799 1.95992
1 19.401 31.6602 2.89077
1 20.3244 32.2215 1.83047
2 38.1302 39.7601 18.2703
1 37.4776 39.3187 17.7267
1 38.6197 0.26614 17.6586
2 26.9003 30.9498 15.3601
1 26.2679 31.181 16.0404
1 26.5078 31.2714 14.5484
2 22.34 14.0799 8.16002
1 22.8124 14.3891 8.93298
1 21.8769 14.8527 7.83677
2 3.14006 23.23 36.4601
1 2.98928 24.1088 36.8081
1 2.62979 23.2016 35.6507
2 19.4499 26.9998 23.8904
1 19.1113 27.4788 24.6468
1 19.6005 27.6737 23.2274
2 26.63 12.66 12.58
1 26.6803 12.09 11.8127
1 26.8496 12.0902 13.3171
2 31.87 5.32983 19.2304
1 32.1498 4.71202 19.9058
1 31.2299 5.89074 19.6684
2 33.2805 5.24041 6.06039
1 33.3392 5.2491 5.10503
1 33.9734 5.83442 6.34882
2 21.8099 20.82 19.9596
1 21.2311 20.3199 19.384
1 22.1912 21.4904 19.3927
2 21.9498 6.15959 33.9796
1 22.4415 5.88231 34.7527
1 21.9215 7.11427 34.0429
2 29.7099 23.05 6.00029
1 28.7994 22.8393 6.20721
1 30.0924 23.3103 6.83824
2 37.4501 15.7601 34.5201
1 36.7878 16.4501 34.5589
1 38.1701 16.088 35.059
2 6.98013 13.5697 7.50027
1 6.93947 13.5117 8.45484
1 6.53843 14.3927 7.29087
2 15.1702 18.6903 22.9101
1 15.8567 19.357 22.8902
1 15.4706 18.0181 22.2984
2 11.5998 29.7198 21.03
1 11.529 30.6509 21.2402
1 10.6936 29.4221 20.9505
2 14.4696 1.86027 29.79
1 15.2918 1.38682 29.917
1 14.1344 1.53894 28.953
2 9.71046 19.2705 27.2696
1 9.80916 20.2054 27.4495
1 9.07354 18.9675 27.9167
2 30.8801 18.7502 18.8401
1 30.7901 17.886 18.4385
1 30.1389 19.2513 18.4997
2 35.4996 24.9101 14.6498
1 34.8142 24.6799 14.0226
1 35.1817 25.709 15.0703
2 27.8601 22.0497 23.2003
1 26.9668 21.7615 23.3878
1 28.4015 21.5829 23.8369
2 37.1096 27.7497 3.60986
1 36.474 28.4002 3.31165
1 37.862 28.265 3.90061
2 35.0505 2.65997 14.0997
1 34.4565 2.64009 13.3494
1 35.9254 2.6104 13.7146
2 10.6496 1.06012 19.5496
1 11.1922 1.60228 20.1223
1 10.1038 1.68576 19.0733
2 2.92023 7.67035 21.72
1 2.49972 8.16965 21.0199
1 2.43663 6.84484 21.7499
2 29.0399 34.1198 11.9194
1 29.2906 34.3518 11.0252
1 28.5206 33.3215 11.8237
2 18.12 20.0801 10.5504
1 17.3202 19.7197 10.1673
1 18.71 20.1994 9.80618
2 22.7298 33.2796 36.4702
1 23.4019 33.6821 37.0204
1 22.4406 32.5138 36.9662
2 29.5401 26.07 5.71009
1 29.7202 25.2101 6.09007
1 28.7276 25.9498 5.21852
2 28.4505 28.4203 6.57002
1 28.6259 27.4794 6.57983
1 27.4964 28.4861 6.52986
2 15.4697 0.609067 8.39044
1 15.2532 1.40554 8.87522
1 15.942 0.91927 7.61784
2 37.2801 4.6501 28.2699
1 37.9799 4.00792 28.1511
1 37.5382 5.39055 27.7209
2 2.67029 0.600365 35.4299
1 1.98557 40.0331 35.7016
1 2.26983 1.46505 35.5203
2 32.0703 13.1202 18.3501
1 32.9444 13.5072 18.3989
1 32.0207 12.7498 17.4689
2 14.7495 0.359753 37.16
1 15.4443 0.672246 37.7396
1 15.0532 0.581675 36.2798
2 39.1002 5.20054 13.9592
1 40.0412 5.36669 14.0157
1 38.8258 5.64474 13.1569
2 3.98985 8.21962 27.1998
1 3.7712 8.02266 28.1106
1 4.40117 9.0833 27.2331
2 36.3 13.2899 21.3604
1 36.1605 12.9014 20.4968
1 36.6299 14.1696 21.1773
2 32.0407 23.54 1.89976
1 32.8632 23.996 1.72144
1 31.4661 24.2143 2.26237
2 21.9497 4.14013 6.07914
1 21.2891 4.82213 5.95784
1 22.1248 3.81577 5.19576
2 31.8803 32.9901 18.7602
1 31.3173 33.2196 19.4996
1 32.7674 33.1785 19.0666
2 3.9201 16.6401 18.0199
1 4.73871 16.2601 17.7009
1 3.79963 17.4289 17.4912
2 14.63 37.9796 36.92
1 13.7095 37.7299 37
1 14.6199 38.9367 36.92
2 9.8097 32.3199 15.2998
1 9.01012 32.1833 14.7916
1 10.3046 31.5078 15.1915
2 30.7601 7.69021 30.16
1 31.1513 8.55812 30.0602
1 29.8164 7.84862 30.1402
2 34.3196 26.8803 5.59999
1 34.4523 27.0175 6.53796
1 34.9937 26.2475 5.35227
2 38.9897 12.7596 35.1896
1 39.8821 12.8319 34.8511
1 38.9521 13.395 35.9045
2 33.9701 1.40011 8.51016
1 33.8391 0.978359 9.35941
1 34.3997 2.22983 8.71798
2 33.7203 32.1696 15.9401
1 33.2171 32.9839 15.938
1 33.6989 31.872 15.0306
2 9.70998 13.48 9.19002
1 9.96017 14.3799 9.39941
1 10.0101 13.3506 8.29033
2 8.07006 14.5702 39.2008
1 8.15992 14.8205 0.0764009
1 7.81906 13.6468 39.2269
2 27.0496 1.87015 18.48
1 27.3237 1.03043 18.8488
1 27.8428 2.22725 18.0807
2 10.5698 5.78013 29.8603
1 11.2704 5.919 30.4975
1 11.0136 5.42887 29.0883
2 29.2699 0.209708 36.3197
1 29.0811 39.4329 35.8646
1 29.1607 0.885613 35.6507
2 20.2698 30.6702 39.7201
1 19.621 31.2092 39.2678
1 20.0821 30.7983 0.606056
2 16.6999 2.52978 10.5302
1 17.1925 1.71047 10.5781
1 15.9497 2.39296 11.1088
2 38.8898 23.14 16.1501
1 38.5428 23.2902 15.2708
1 39.8299 23.3005 16.0677
2 23.5998 6.73994 10.28
1 23.4591 7.66756 10.0903
1 22.7246 6.35341 10.2499
2 12.9398 20.7203 28.2802
1 12.7125 21.5979 28.5874
1 12.36 20.137 28.7697
2 31.9598 23.2195 18.29
1 31.7421 22.5244 17.669
1 31.6914 22.8736 19.1412
2 30.1202 9.95024 28.0603
1 29.1888 10.0584 27.8679
1 30.4186 9.2878 27.4371
2 24.62 32.0999 27.3202
1 25.1302 32.4006 26.5681
1 23.7193 32.0602 26.9988
2 16.2603 25.8402 22.6199
1 15.3552 26.1502 22.5903
1 16.7796 26.5868 22.3211
2 17.9794 19.8994 39.6597
1 18.1242 20.456 0.381033
1 18.7153 20.0934 39.0792
2 1.22004 15.6701 28.1199
1 1.09988 15.0396 27.4098
1 0.979445 15.1888 28.9115
2 15.5297 10.9501 25.0796
1 15.4 11.1589 24.1545
1 16.4752 11.0202 25.2113
2 18.0697 7.14023 27.0506
1 18.0543 7.50798 27.9342
1 17.1505 6.96842 26.8461
2 30.1703 6.61967 39.7997
1 29.3801 6.58051 39.2609
1 30.8051 6.0748 39.3345
2 24.84 31.9301 16.83
1 24.6103 32.8593 16.8301
1 24.1401 31.5099 16.3301
2 19.1098 28.2201 2.63048
1 18.4388 28.2198 1.94783
1 18.6341 28.4284 3.43452
2 6.08006 0.740056 27.0105
1 5.51072 40.035 27.1869
1 6.09834 0.808032 26.0559
2 18.6604 23.2498 15.4505
1 18.1137 23.4523 14.6913
1 19.3997 22.7602 15.0902
2 36.18 39.5498 11.2902
1 35.2718 39.8114 11.1383
1 36.6885 0.0379791 10.6783
2 10.86 39.6999 25.3097
1 10.2035 39.1541 25.7426
1 11.2265 0.19316 26.0121
2 39.6796 14.5202 20.24
1 0.410041 14.8108 19.7581
1 39.9923 13.7963 20.7826
2 38.2095 1.32013 0.900311
1 38.824 0.589284 0.967224
1 38.5538 1.85871 0.187845
2 6.41003 31.6696 24.4302
1 7.02754 31.0448 24.0501
1 6.47192 32.4411 23.8669
2 30.7799 29.2597 12.8702
1 30.5513 28.7336 13.6365
1 30.7603 28.6412 12.1399
2 3.20005 18.7099 39.5
1 2.72002 19.3112 0.0255361
1 3.47924 19.2506 38.7611
2 10.7001 14.52 38.86
1 9.76535 14.6806 38.9888
1 11.0725 14.5497 39.7413
2 33.78 16.8307 17.22
1 33.148 17.364 16.7378
1 34.3027 17.4641 17.7118
2 14.14 17.3702 9.64021
1 14.2709 16.5365 9.18866
1 14.6291 17.2796 10.458
2 16.4398 21.4597 15.7901
1 16.5699 20.6528 16.2883
1 17.3037 21.8714 15.7701
2 38.1897 30.5499 6.99007
1 39.0411 30.9689 7.11547
1 38.2044 30.2431 6.08347
2 2.56008 18.3796 8.2101
1 2.8893 17.5037 8.00853
1 2.29935 18.3322 9.12988
2 0.930032 16.4899 1.38025
1 0.399833 17.2703 1.21836
1 1.15966 16.1705 0.507623
2 22.0398 24.0101 39.3901
1 21.6134 24.8668 39.369
1 22.829 24.1218 38.86
2 10.6805 35.7305 6.31951
1 10.4953 36.5571 5.87389
1 11.5775 35.5157 6.06384
2 4.08011 12.4806 8.24049
1 4.96532 12.1466 8.38568
1 3.68292 11.8532 7.63652
2 9.43023 12.33 34.3997
1 9.13697 11.4466 34.623
1 10.0494 12.2028 33.681
2 33.7201 0.75999 3.97
1 34.2996 1.35971 4.43976
1 34.3095 0.120445 3.57027
2 22.6799 29.5301 20.3001
1 21.8613 29.1506 19.9805
1 22.4109 30.128 20.9976
2 14.9597 15.9899 21.3301
1 14.4727 15.8508 22.1423
1 14.3313 15.7904 20.6362
2 35.7497 15.5702 23.52
1 35.9598 16.44 23.1801
1 36.5746 15.0872 23.4698
2 25.15 3.49998 36.9101
1 24.6698 2.91972 36.3194
1 24.8007 3.30052 37.7787
2 31.1198 15.25 9.09
1 31.0608 15.3499 8.13986
1 30.2222 15.3696 9.4001
2 4.64075 32.4495 27.9601
1 4.28584 32.5134 28.8468
1 4.03228 32.9549 27.4211
2 5.71042 3.95939 12.9099
1 5.50642 4.62438 12.2523
1 5.25689 4.2553 13.6992
2 35.7301 30.9203 29.2801
1 34.8495 31.2084 29.0398
1 35.6982 29.9663 29.2092
2 9.67962 4.86002 20.7996
1 9.33212 4.59978 21.6527
1 10.6139 4.99992 20.9536
2 21.3999 34.8197 15.0199
1 20.9215 34.0232 15.2499
1 21.7599 34.641 14.1512
2 23.8999 20.6101 14.42
1 23.0306 20.9504 14.6318
1 23.8317 20.3287 13.5077
2 24.3701 33.1497 5.18976
1 24.9396 32.3816 5.23315
1 24.1082 33.2027 4.27062
2 28.5495 29.7498 32.6199
1 29.4552 30.0221 32.4721
1 28.4129 29.8709 33.5595
2 10.8398 0.98045 28.1797
1 10.7626 1.79483 27.6827
1 9.94988 0.798022 28.4813
2 23.6099 16.3999 31.97
1 22.9996 16.6598 31.2799
1 24.3015 17.0611 31.9402
2 3.07012 22.7705 11.7803
1 3.8008 23.0753 12.3182
1 2.44731 23.4973 11.7873
2 0.589703 32.0703 7.65974
1 0.731475 32.738 8.33079
1 1.12324 31.3279 7.94337
2 21.2003 15.5801 34.32
1 22.1251 15.7392 34.1311
1 20.9806 16.2186 34.9985
2 3.77015 12.2999 23.8601
1 3.66054 12.4398 22.9195
1 4.65711 11.9512 23.9491
2 4.37983 0.9005 10.67
1 4.28973 1.85345 10.6701
1 5.32298 0.74862 10.6098
2 11.7097 16.18 5.76996
1 11.2632 16.0005 4.94252
1 12.6412 16.1195 5.55806
2 3.77013 5.86029 17.1998
1 4.35707 6.56694 16.9308
1 4.15092 5.52847 18.0129
2 2.85956 3.5898 10.9295
1 2.97291 3.44991 11.8696
1 2.09407 3.06332 10.6991
2 3.9695 26.8697 9.42049
1 3.58258 27.7214 9.21756
1 4.77541 26.8432 8.90471
2 36.7195 36.6395 11.0999
1 37.5943 36.3521 11.3612
1 36.7736 37.5952 11.0909
2 10.3 22.4006 34.6403
1 10.3594 21.7533 33.9376
1 10.0299 21.8971 35.4082
2 1.66932 9.61027 2.80022
1 2.56966 9.41906 2.53742
1 1.67106 10.5466 2.99901
2 3.37997 27.0495 25.9597
1 3.61028 27.1934 25.0418
1 3.18025 26.1149 26.0133
2 25.7406 31.3102 23.6901
1 24.8749 31.6971 23.5597
1 25.5752 30.3699 23.7595
2 25.7997 27.7304 3.24997
1 26.6103 28.2387 3.2201
1 25.1037 28.3848 3.19045
2 27.0698 10.4103 10.9999
1 27.5126 9.58568 11.2001
1 27.2802 10.5789 10.0814
2 13.7297 23.9399 36.4098
1 12.8429 24.2802 36.2916
1 13.7915 23.2114 35.792
2 33.1599 35.77 39.99
1 33.9669 35.6484 39.4898
1 32.5544 35.122 39.6299
2 31.1294 39.6597 30.8901
1 31.003 39.2816 30.0198
1 30.3472 39.4036 31.3789
2 21.9801 36.4496 8.78991
1 21.3668 37.1156 8.47933
1 21.7918 35.6805 8.25206
2 38.5903 27.7195 1.3397
1 38.6065 28.6519 1.12381
1 37.9882 27.6553 2.08103
2 35.1598 23.7399 9.23988
1 34.7307 23.8814 10.0837
1 34.4818 23.35 8.6882
2 39.0002 32.04 16.1901
1 39.3302 32.0499 17.0886
1 38.0562 32.1705 16.2797
2 6.27014 16.9098 23.0601
1 6.75934 16.2909 22.5181
1 6.45846 16.642 23.9596
2 0.579942 25.7899 32.67
1 0.691855 24.9699 33.151
1 39.753 25.7217 32.2787
2 21.5196 26.7901 27.6601
1 20.695 27.2676 27.5695
1 21.4711 26.3902 28.5284
2 27.1596 1.19986 23.1098
1 27.8947 1.80313 23.0002
1 27.3614 0.719056 23.9125
2 21.5407 17.4801 30.4795
1 21.4771 16.6824 29.9542
1 20.7919 17.4362 31.0741
2 37.1296 24.0402 1.87008
1 36.6711 23.7005 2.63859
1 37.9554 23.5566 1.85011
2 18.5697 27.2102 31.3003
1 17.8744 27.5889 31.8382
1 18.11 26.6581 30.6677
2 0.240209 32.5502 21.4905
1 0.229153 31.6079 21.6581
1 39.9614 32.6383 20.5937
2 18.8999 13.7001 14.9598
1 18.541 13.3799 14.1323
1 19.0699 12.9083 15.4701
2 30.9697 38.8796 8.2197
1 30.3904 38.9109 8.98101
1 30.5741 38.2254 7.64376
2 11.0998 31.4103 29.6401
1 11.401 31.6294 28.7584
1 10.642 32.1958 29.9395
2 36.3496 1.14945 36.3393
1 36.8324 1.48314 35.5831
1 35.7737 0.475597 35.9781
2 25.2401 38.6 34.1902
1 25.0208 38.8494 35.088
1 24.4179 38.6902 33.7085
2 4.62998 34.3095 7.20025
1 4.96012 33.7552 7.90737
1 4.01018 33.753 6.7286
2 7.39048 12.2703 10.1195
1 7.38914 12.2695 11.0767
1 8.20316 12.7162 9.88101
2 29.1401 11.3103 5.01056
1 29.7226 11.2195 4.2564
1 29.6555 11.7959 5.65467
2 26.4698 32.8302 34.4099
1 27.0627 32.1187 34.6516
1 26.8208 33.5985 34.8602
2 18.1602 25.5395 10.8497
1 18.5077 25.4216 9.96562
1 18.0496 26.486 10.9398
2 17.0598 15.9497 30.9706
1 16.7133 15.3757 31.6537
1 17.2206 15.3683 30.2274
2 20.2503 24.06 17.5302
1 20.847 23.3118 17.5489
1 19.5684 23.8077 16.9076
2 7.30034 6.93997 1.95968
1 6.60473 7.00044 2.61444
1 6.83988 6.93003 1.12057
2 10.06 16.11 10.15
1 10.9693 15.9607 10.4088
1 10.121 16.619 9.34161
2 12.4496 15.1097 11.3103
1 13.216 15.5625 10.9582
1 12.8097 14.4727 11.9274
2 30.0792 13.1999 6.84003
1 29.3659 13.8064 6.64117
1 30.876 13.7051 6.67835
2 23.6704 9.55974 21.5603
1 23.6757 9.29227 22.4794
1 24.5087 9.25184 21.2159
2 8.03978 25.4205 5.17026
1 8.51999 25.2273 5.97544
1 8.28345 24.7154 4.57046
2 34.2401 20.7899 7.48047
1 33.5986 20.2592 7.00807
1 34.2506 20.423 8.36452
2 30.2099 26.1702 38.5601
1 29.8016 26.698 39.2463
1 29.9404 26.5893 37.7427
2 10.55 37.3997 4.01006
1 11.4519 37.6 4.26059
1 10.1775 38.2448 3.75845
2 7.91952 0.0302596 31.1802
1 8.16483 0.759621 31.7495
1 6.96279 0.0162579 31.2069
2 27.4704 7.71949 1.3205
1 27.2473 7.13493 2.04492
1 28.4171 7.62311 1.21708
2 33.9696 12.7197 14.4898
1 34.4509 13.081 15.2342
1 33.1954 12.3131 14.879
2 37.53 36.9301 3.49992
1 38.1703 36.8792 2.79029
1 37.0601 37.7488 3.34093
2 28.5003 21.0503 38.8899
1 28.7299 20.1557 39.1413
1 27.5455 21.0791 38.9506
2 24.8999 29.8702 9.61982
1 24.9816 30.1867 10.5195
1 25.3406 29.0205 9.62334
2 14.14 36.1899 29.8001
1 14.7209 36.5314 30.4799
1 13.7891 35.3794 30.1691
2 23.2603 4.95009 17.1699
1 22.4762 4.6385 16.7179
1 23.0091 4.98008 18.0931
2 37.2702 30.3403 14.5199
1 36.8473 29.6052 14.9639
1 37.1302 30.1705 13.5883
2 36.5599 5.81976 0.580719
1 36.5007 5.73404 1.53223
1 36.5302 4.91969 0.256355
2 13.3099 38.5097 13.7594
1 13.4309 39.1741 14.4377
1 13.2002 37.6907 14.2425
2 2.49979 39.3796 25.2007
1 1.68192 38.9036 25.3448
1 3.0114 39.2235 25.9945
2 24.0701 13.7604 39.52
1 24.3294 14.655 39.7406
1 23.6996 13.8281 38.6399
2 34.5204 29.3494 31.6204
1 33.7148 29.4094 31.1069
1 34.5983 28.4203 31.8371
2 39.5199 28.4399 12.9597
1 39.5212 28.4719 12.003
1 39.0398 27.6396 13.1724
2 17.2403 20.6901 22.58
1 18.1861 20.8291 22.5315
1 16.9283 20.8499 21.6893
2 39.4798 20.3605 5.63014
1 39.5522 21.3145 5.59869
1 38.6615 20.1973 6.09913
2 2.31014 12.24 17.4603
1 2.98074 12.6808 16.9385
1 1.57701 12.1198 16.8567
2 0.740154 22.6003 24.2498
1 0.159766 21.9988 23.7833
1 0.707789 22.3071 25.1604
2 7.55966 28.43 14.5198
1 7.84191 28.4099 15.4342
1 8.37353 28.4802 14.0185
2 4.04987 3.72004 4.83014
1 3.34186 4.32882 4.61956
1 4.57025 3.67054 4.02827
2 13.2796 15.6603 19.1002
1 13.3321 16.1293 18.2674
1 12.5943 16.1157 19.5893
2 7.08988 4.43022 25.1499
1 7.50071 3.94029 25.8622
1 6.95113 5.30621 25.5099
2 19.2001 24.1895 24.2498
1 20.1176 23.9609 24.1005
1 19.2305 25.0663 24.6327
2 39.7601 39.2199 1.05986
1 0.0741282 38.8006 0.277383
1 0.336838 39.0007 1.75482
2 2.66014 23.2098 7.24025
1 2.39004 22.2924 7.19925
1 3.25775 23.2509 7.98684
2 21.5702 5.39011 28.2896
1 22.199 4.69866 28.0828
1 21.6475 6.00961 27.564
2 23.8798 27.84 28.62
1 24.2017 27.2491 27.9392
1 22.9315 27.8607 28.4911
2 3.30003 7.91012 10.5297
1 3.03879 8.44959 9.78336
1 4.0508 7.40845 10.212
2 35.5299 34.5 9.48015
1 36.0215 34.3892 8.66636
1 36.1404 34.9406 10.0713
2 31.64 11.8801 15.8799
1 31.4406 11.0776 16.3621
1 30.8599 12.0412 15.3491
2 20.6698 13.7899 1.74953
1 21.6003 13.8008 1.97376
1 20.2221 13.9807 2.57376
2 13.8702 33.24 16.83
1 13.6776 33.1012 17.7573
1 13.0394 33.5295 16.453
2 29.4403 35.6894 33.3999
1 30.2894 35.8548 32.9902
1 29.376 34.7353 33.4419
2 21.4594 1.79011 0.0199551
1 20.6452 1.54758 39.6228
1 21.2044 2.48069 0.631778
2 29.4 19.8701 24.0899
1 29.63 19.0878 24.5913
1 30.2303 20.3308 23.9696
2 6.97959 22.5797 36.1296
1 6.80293 23.4518 36.4825
1 7.84362 22.3524 36.4731
2 10.7699 23.9301 1.83006
1 10.9805 24.5385 2.53842
1 11.6108 23.5404 1.59057
2 22.9501 31.9502 14.46
1 22.4608 31.128 14.4889
1 23.7282 31.7483 13.9405
2 6.86012 35.8402 13.1002
1 7.78494 35.8274 13.3467
1 6.75312 35.0789 12.53
2 5.94963 32.4398 9.04021
1 5.14491 32.3319 9.54717
1 6.15097 31.5607 8.71951
2 13.1298 31.2002 12.3405
1 13.5703 32.0494 12.3087
1 13.3222 30.7982 11.4934
2 28.6599 3.8601 31.9005
1 28.2982 3.72907 31.024
1 27.8941 3.99938 32.4577
2 36.5198 20.8604 17.2003
1 35.9141 21.4639 16.77
1 36.6684 20.169 16.5553
2 30.0599 15.3001 34.7799
1 29.1331 15.5393 34.7898
1 30.3891 15.6493 33.9517
2 27.1799 24.7902 38.9801
1 27.1101 25.4082 38.2524
1 26.7622 25.2378 39.7159
2 3.42986 2.83989 21.47
1 4.16258 3.33188 21.8405
1 3.03963 2.38985 22.2193
2 9.42966 23.18 30.1701
1 9.04231 22.4009 30.5692
1 8.69314 23.7794 30.0497
2 25.1498 39.2999 27.2896
1 24.8112 39.7441 26.5123
1 25.0318 38.3682 27.1041
2 23.2897 23.38 27.9703
1 23.8108 22.8011 28.5267
1 23.804 23.4686 27.1679
2 21.5601 13.9403 23.31
1 21.0398 13.8581 22.5107
1 21.5087 13.0768 23.7197
2 17.5703 3.37001 3.73019
1 16.8061 3.84097 3.39803
1 17.4186 2.45889 3.47903
2 35.7999 11.0602 8.17003
1 35.521 11.9495 8.38805
1 35.5499 10.5368 8.93147
2 2.89969 26.6195 29.5501
1 2.37335 25.8335 29.6964
1 2.89163 27.074 30.3924
2 10.12 15.0503 16.9098
1 10.7113 14.707 16.2399
1 9.93885 15.9484 16.6327
2 23.43 6.56993 4.23987
1 23.1206 6.09075 3.47117
1 22.6388 6.74035 4.75093
2 38.5098 35.7101 25.8801
1 37.8798 35.3107 26.4799
1 39.1634 35.0273 25.7289
2 33.6498 0.119935 10.9101
1 33.0125 39.5245 11.2285
1 33.3313 0.960477 11.2392
2 23.9798 2.44971 39.3104
1 23.1319 2.2127 39.6861
1 24.6215 2.02186 39.8773
2 2.51021 25.8302 37.9797
1 2.3268 25.3578 38.7917
1 1.70985 25.7386 37.4627
2 5.28987 24.71 19.2795
1 4.82149 24.0611 18.7543
1 5.5405 25.3895 18.6537
2 25.2305 25.6694 30.9398
1 25.0578 24.756 30.7116
1 26.1848 25.7428 30.9309
2 24.2304 10.6596 28.29
1 25.1569 10.6439 28.0501
1 24.0268 9.75306 28.5203
2 7.58004 14.5599 22.0902
1 6.88979 14.3491 21.4614
1 7.37963 14.0218 22.8559
2 13.0404 8.52995 10.7897
1 13.5857 8.77981 10.0437
1 13.5378 7.84105 11.2305
2 14.9396 24.6304 39.2003
1 15.8045 24.2361 39.0872
1 14.4015 24.2281 38.5184
2 13.5998 13.1804 20.2993
1 13.7127 13.7358 19.528
1 12.7009 12.8581 20.2334
2 11.1199 32.9397 5.31003
1 10.6015 32.2714 4.86189
1 11.2108 33.6435 4.66771
2 34.1894 20.5498 12.9899
1 34.1611 21.4732 12.7394
1 35.0978 20.4 13.2519
2 11.8796 28.8197 31.1801
1 11.8131 27.8662 31.1297
1 12.794 29.0081 30.9689
2 39.2101 18.3901 39.2702
1 39.0905 19.3204 39.461
1 38.7277 18.2482 38.4557
2 10.5499 36.4899 31.0996
1 9.59464 36.4606 31.1533
1 10.8372 36.6203 32.0033
2 20.1998 23.3796 1.33037
1 19.5308 24.0622 1.27793
1 20.8718 23.6537 0.706213
2 11.67 5.13019 12.08
1 11.2292 5.94817 12.3099
1 12.5716 5.38881 11.8894
2 18.8098 2.40968 16.6695
1 19.6118 2.93077 16.7092
1 18.8108 2.03434 15.7889
2 38.9396 5.35048 10.8398
1 39.6332 5.99883 10.961
1 38.1739 5.86362 10.5817
2 34.37 35.6901 26.1699
1 34.7094 36.5784 26.0602
1 35.071 35.2193 26.6206
2 6.66982 29.8002 11.75
1 5.81327 29.5692 12.1094
1 7.21962 29.0379 11.9311
2 17.09 35.0801 39.2196
1 16.2329 34.7008 39.4139
1 17.5168 35.1584 0.0288772
2 1.28012 35.9902 20.9598
1 1.16938 36.9359 20.8621
1 0.788674 35.7715 21.7515
2 7.74013 6.89996 17.62
1 8.49818 6.70049 17.0707
1 7.03973 7.10009 16.999
2 20.1697 25.3698 34.2997
1 20.7633 25.109 35.0038
1 19.7119 24.5639 34.0608
2 38.3297 38.8203 36.1997
1 37.7319 39.5675 36.1738
1 38.5124 38.627 35.2802
2 17.7897 25.65 18.3696
1 18.6227 25.1788 18.3505
1 17.3825 25.4518 17.5263
2 27.7399 25.1204 8.76978
1 27.7697 24.7299 9.64319
1 27.4618 26.0239 8.92023
2 26.71 15.4802 34.2297
1 26.5896 14.5678 34.4927
1 26.7097 15.9692 35.0525
2 35.9098 17.9404 26.1995
1 36.7502 17.9685 25.742
1 35.3325 18.4955 25.6754
2 5.37985 35.3899 25.9698
1 4.50281 35.0114 26.0309
1 5.60959 35.6102 26.8725
2 20.7802 17.3199 13.2797
1 21.0178 17.5312 14.1825
1 19.8395 17.4909 13.2328
2 37.41 25.8404 27.52
1 37.589 26.7252 27.2018
1 37.5504 25.2784 26.758
2 11.3202 20.0699 12.1597
1 10.8089 20.8784 12.1937
1 11.1174 19.6229 12.9814
2 2.51943 16.0502 38.9995
1 1.8049 16.2146 38.3842
1 2.81409 16.9218 39.2636
2 6.54999 7.0697 39.3497
1 7.14966 6.6227 38.7524
1 5.72057 6.60209 39.2516
2 14.4596 0.480124 27.2202
1 14.1919 0.0294114 26.4193
1 15.4141 0.408614 27.2282
2 5.17053 16.9506 12.6103
1 5.00515 17.6453 13.2477
1 6.09651 17.0452 12.3871
2 7.82025 9.99983 16.7699
1 7.54966 10.9125 16.8701
1 8.70637 10.0502 16.4115
2 22.8497 0.236456 8.67042
1 23.2126 39.6741 8.02462
1 22.1613 39.7802 9.10878
2 14.41 34.13 39.7901
1 13.7902 34.5597 0.335581
1 13.919 33.9999 38.9788
2 39.5199 34.9402 35.9601
1 39.6034 34.0103 35.7493
1 0.354974 35.2959 35.8294
2 0.860815 24.5003 11.5997
1 0.231873 24.2868 12.289
1 0.405186 24.2884 10.7851
2 6.07989 8.84962 24.1
1 6.50261 9.70462 24.1807
1 6.59915 8.27149 24.6589
2 5.62987 16.6498 38.32
1 5.20217 17.4404 37.9909
1 6.47995 16.9522 38.6396
2 5.1903 10.6099 39.8498
1 5.32711 9.9007 39.2216
1 6.03805 11.0513 39.9018
2 15.5 15.0296 14.6703
1 15.7611 15.5845 13.9353
1 14.8196 15.5311 15.1196
2 39.6998 12.0898 16.5801
1 39.3518 11.2037 16.4802
1 39.1118 12.5092 17.2083
2 18.7596 38.0295 24.52
1 19.2896 37.2339 24.5699
1 17.8567 37.7143 24.4802
2 25.0198 23.8501 13.0299
1 25.3085 23.2199 13.6901
1 24.064 23.8092 13.0609
2 29.3797 12.8501 37.86
1 29.4325 13.7607 37.5697
1 28.4416 12.6779 37.9406
2 32.4401 4.13981 26.1499
1 31.87 4.63284 26.7399
1 32.8977 4.81019 25.6424
2 14.3308 2.70019 0.900259
1 14.8623 3.32059 1.39901
1 14.9557 2.04638 0.586877
2 39.61 33.8097 0.0659507
1 39.3381 34.7031 0.276157
1 38.9419 33.4922 39.5023
2 4.85029 9.39977 31.5697
1 4.24833 9.92812 32.0939
1 4.92704 8.57558 32.0504
2 11.7601 32.7198 33.6499
1 12.209 31.9119 33.899
1 11.5092 33.1213 34.4819
2 13.0195 32.74 24.36
1 13.5641 33.524 24.2896
1 13.6446 32.0163 24.4002
2 36.5405 5.17969 3.34005
1 36.965 4.32205 3.31933
1 37.2478 5.79287 3.53992
2 33.67 29.35 19.7399
1 33.4599 29.7797 18.9108
1 34.5604 29.0197 19.6202
2 31.2298 7.10998 15.9199
1 30.425 7.1308 15.4021
1 31.8084 7.73952 15.4896
2 10.4001 3.8508 3.34969
1 11.1897 3.325 3.22186
1 9.78904 3.26232 3.79303
2 29.96 35.32 9.59019
1 30.9112 35.3601 9.49024
1 29.6284 35.2297 8.69681
2 37.6297 5.51983 16.2399
1 38.3222 5.4007 15.59
1 38.0432 6.02207 16.942
2 23.89 14.1795 12.7498
1 24.0426 15.0342 13.1528
1 24.6882 13.6831 12.9303
2 6.51963 6.46997 12.1392
1 6.26644 6.4303 11.217
1 5.68948 6.49023 12.6153
2 2.01978 24.1799 39.9738
1 1.31875 23.5311 39.9124
1 2.63466 23.8097 0.563225
2 5.56967 4.92008 19.3298
1 6.44096 5.31637 19.3227
1 5.66427 4.14231 19.8797
2 18.9098 8.90999 5.60998
1 18.451 9.13947 6.41814
1 18.2124 8.69075 4.99211
2 38.6897 34.0598 4.85027
1 39.1636 34.2017 5.66974
1 37.8711 33.6409 5.11591
2 32.31 22.16 35.83
1 33.12 22.1801 36.3396
1 32.5801 22.3898 34.9409
2 35.0497 18.5302 18.8598
1 34.4747 19.2355 18.5629
1 35.59 18.9314 19.5405
2 8.74068 2.63057 32.28
1 8.38741 3.22748 31.6203
1 9.59173 3.00351 32.5099
2 3.94041 9.82987 16.0894
1 3.58346 10.0696 16.9446
1 3.22001 9.38237 15.6455
2 39.16 18.0799 12.6896
1 39.5412 17.5684 13.4033
1 39.4881 17.6624 11.8932
2 31.0703 0.266615 16.1904
1 30.3692 39.7065 16.4352
1 31.3064 0.011459 15.2986
2 35.22 6.38031 19.6799
1 34.8514 7.0396 19.092
1 34.9092 5.54555 19.3294
2 27.0299 0.680505 37.9508
1 26.1504 0.357216 37.7554
1 27.5707 0.35477 37.2314
2 6.10004 28.1097 26.2599
1 5.21018 27.8008 26.4301
1 6.05917 29.0541 26.4108
2 22.8099 37.1898 36.1498
1 22.0572 36.6009 36.2037
1 23.2838 36.9026 35.3693
2 20.8597 4.12047 15.9304
1 20.8092 5.01035 15.5814
1 21.3158 3.62222 15.2522
2 32.1899 39.2501 18.2604
1 31.9526 39.6369 17.4176
1 32.7689 38.5218 18.0357
2 26.2295 8.6999 20.9503
1 26.7921 8.79044 21.7194
1 26.8153 8.84118 20.2065
2 33.3298 22.7001 32.2698
1 33.0511 23.5084 32.7002
1 33.9117 22.2795 32.9028
2 26.7102 33.0498 25.46
1 26.3406 32.3917 24.8713
1 27.5164 32.652 25.7887
2 22.6698 18.8007 3.70993
1 21.842 19.2047 3.97018
1 23.1906 19.524 3.36088
2 39.2697 14.6003 11.5997
1 39.07 14.6797 12.5325
1 38.6642 15.2059 11.1722
2 33.1702 17.7997 20.9397
1 33.7876 18.0213 20.2426
1 33.1885 16.8436 20.9814
2 37.2202 10.3101 11.7699
1 38.0017 10.768 11.4604
1 36.5151 10.9512 11.6805
2 13.55 6.88988 16.9402
1 13.4102 7.52917 17.6388
1 13.6995 6.06277 17.3982
2 9.51968 39.8402 3.25041
1 9.37217 0.630631 3.69579
1 10.1929 40.0323 2.59768
2 22.7603 33.9301 12.6199
1 23.6861 34.0102 12.3904
1 22.7392 33.2585 13.3016
2 31.3194 38.2804 38.4501
1 30.3779 38.3173 38.6187
1 31.5813 39.1957 38.35
2 7.28974 34.9194 39.8304
1 7.59288 35.3766 39.046
1 7.35126 35.5724 0.483658
2 30.3301 13.6001 11.8901
1 31.0902 13.9584 12.3486
1 29.5876 14.0999 12.2295
2 21.3802 39.7399 11.3201
1 21.4502 38.7905 11.42
1 20.497 39.8808 10.9788
2 22.28 31.4698 4.41994
1 22.8194 32.2512 4.54108
1 21.5113 31.6212 4.96992
2 8.32973 33.8802 2.85002
1 8.30231 32.9447 3.05059
1 7.43203 34.1819 2.98915
2 35.5299 2.45037 5.53024
1 35.631 3.06855 4.80645
1 35.2906 2.9955 6.27977
2 14.3705 24.0897 16.7301
1 15.1344 24.4398 16.2717
1 13.6576 24.6846 16.4974
2 13.5595 13.5907 13.3599
1 13.7363 12.6533 13.2819
1 14.3321 13.9449 13.8001
2 33.96 0.269839 20.2697
1 33.6596 39.7955 19.5231
1 34.8808 0.450933 20.0812
2 33.1901 30.6496 34.6398
1 32.4492 30.792 34.0507
1 33.55 29.8038 34.3727
2 0.839924 16.23 5.74011
1 0.152271 16.0406 6.37847
1 1.61893 16.3997 6.26978
2 32.1098 10.93 36.3
1 32.9918 10.5601 36.3402
1 32.2308 11.8603 36.4902
2 26.4497 27.5097 9.38061
1 26.6028 27.4625 10.3243
1 25.6315 27.0315 9.24598
2 21.69 32.7103 18.3901
1 21.9393 33.6151 18.5785
1 20.9302 32.5493 18.9495
2 3.81006 26.9499 23.3101
1 3.35912 27.5106 22.6788
1 3.54995 26.0606 23.0699
2 32.9093 34.1706 34.0801
1 32.6559 34.8957 33.5089
1 32.2456 34.1652 34.7698
2 27.6399 5.23998 15.0803
1 27.9704 5.36373 14.1905
1 27.6513 6.11656 15.4646
2 31.64 23.4406 22.6101
1 32.4279 23.946 22.4102
1 31.0026 24.094 22.8984
2 29.5101 2.41026 20.2297
1 28.9609 3.12714 19.9123
1 30.2582 2.39876 19.6328
2 25.2401 8.04978 26.22
1 25.6778 7.20995 26.3591
1 25.8806 8.70354 26.5004
2 3.00992 2.68003 33.4992
1 3.63173 2.37928 32.8365
1 2.26962 3.02027 32.9967
2 6.24012 9.32012 37.6499
1 6.25004 8.49849 38.1409
1 7.15807 9.47965 37.4305
2 3.50989 32.2405 10.08
1 2.95288 32.9263 9.71186
1 3.28888 31.4563 9.57755
2 38.44 7.63969 12.7002
1 38.1983 8.31442 12.0658
1 39.2818 7.93052 13.0508
2 19.0002 24.8905 21.6205
1 19.5573 25.6556 21.4774
1 18.8488 24.8773 22.5655
2 16.2699 26.51 25.4799
1 16.5015 26.4311 24.5545
1 17.0797 26.7895 25.9069
2 1.40019 1.24002 27.24
1 1.44074 1.11046 28.1876
1 2.30628 1.40918 26.9819
2 22.9701 13.0699 27.61
1 23.3794 12.2142 27.7387
1 23.6097 13.5678 27.101
2 8.91976 9.58993 24.3803
1 8.38178 10.3793 24.3188
1 9.56206 9.68186 23.6766
2 27.6997 6.75941 33.2101
1 27.5045 5.82566 33.2889
1 26.8599 7.19367 33.3599
2 9.00044 31.36 21.9705
1 8.47593 31.5523 21.1932
1 9.60712 32.0972 22.039
2 3.2303 33.92 25.83
1 3.53871 33.3811 25.1014
1 2.27657 33.9096 25.7492
2 36.5304 1.18039 19.7599
1 36.8155 2.08839 19.8623
1 37.2087 0.775392 19.2194
2 4.7797 13.8505 12.24
1 4.89086 14.7733 12.0112
1 3.86395 13.7786 12.5092
2 33.95 8.89022 29.8299
1 33.9895 7.93886 29.7321
1 33.7203 9.02759 30.749
2 12.3198 5.79028 31.7803
1 11.6937 6.18685 32.386
1 13.0193 6.43865 31.6997
2 21.8596 16.3298 18.1501
1 22.1111 16.2505 19.0702
1 22.5953 16.783 17.7384
2 17.6501 24.2097 33.76
1 17.4995 24.4617 32.8489
1 17.8397 23.2723 33.7215
2 36.5401 7.67041 37.4296
1 36.8411 6.76436 37.3612
1 36.7878 8.0692 36.5954
2 10.7102 16.1298 3.27976
1 11.1595 16.9311 3.01098
1 11.028 15.4614 2.67286
2 39.01 7.68998 34.4999
1 38.9714 7.08102 33.7625
1 39.8092 7.44924 34.9684
2 2.15003 9.72015 35.43
1 1.78018 10.3288 36.0695
1 2.68938 10.2688 34.8605
2 6.15022 27.6297 20.3501
1 5.92865 27.6114 19.4191
1 5.65784 28.3726 20.6994
2 13.4505 31.2798 0.0662858
1 13.6092 32.2229 0.10575
1 12.5528 31.2007 39.7874
2 4.71997 37.5198 1.62014
1 4.89798 38.3602 1.1979
1 3.97249 37.1635 1.13996
2 5.51999 1.34985 7.02021
1 5.83924 0.682357 7.62747
1 4.7109 1.66995 7.41913
2 5.25025 37.3099 8.96994
1 4.54759 37.7012 9.48892
1 4.9684 37.4209 8.06195
2 0.590247 3.84983 32.8
1 0.177507 4.68219 32.5697
1 39.9225 3.32058 33.1601
2 19.29 32.7096 31.9303
1 19.9025 33.1013 31.3077
1 19.7967 32.0248 32.3668